
     Program PWSCF v.7.0 starts on 20Jan2025 at  7: 1:42 

     This program is part of the open-source Quantum ESPRESSO suite
     for quantum simulation of materials; please cite
         "P. Giannozzi et al., J. Phys.:Condens. Matter 21 395502 (2009);
         "P. Giannozzi et al., J. Phys.:Condens. Matter 29 465901 (2017);
         "P. Giannozzi et al., J. Chem. Phys. 152 154105 (2020);
          URL http://www.quantum-espresso.org", 
     in publications or presentations arising from this work. More details at
     http://www.quantum-espresso.org/quote

     Parallel version (MPI), running on     1 processors

     MPI processes distributed on     1 nodes
     0 MiB available memory on the printing compute node when the environment starts

     Reading input from espresso.pwi
Warning: card &CELL ignored
Warning: card / ignored
Warning: card &FCP ignored
Warning: card / ignored
Warning: card &RISM ignored
Warning: card / ignored

     Current dimensions of program PWSCF are:
     Max number of different atomic species (ntypx) = 10
     Max number of k-points (npk) =  40000
     Max angular momentum in pseudopotentials (lmaxx) =  4

     IMPORTANT: XC functional enforced from input :
     Exchange-correlation= PBE
                           (   1   4   3   4   0   0   0)
     Any further DFT definition will be discarded
     Please, verify this is what you really want

     Found identity + (  0.0000  0.5000 -0.5000) symmetry
     This is a supercell, fractional translations are disabled
     Message from routine setup:
     using ibrav=0 with symmetry is DISCOURAGED, use correct ibrav instead

     Subspace diagonalization in iterative solution of the eigenvalue problem:
     a serial algorithm will be used


     G-vector sticks info
     --------------------
     sticks:   dense  smooth     PW     G-vecs:    dense   smooth      PW
     Sum        5049    5049   1321               270017   270017   36377

     Using Slab Decomposition



     bravais-lattice index     =            0
     lattice parameter (alat)  =      10.2871  a.u.
     unit-cell volume          =    1088.6285 (a.u.)^3
     number of atoms/cell      =            8
     number of atomic types    =            1
     number of electrons       =        32.00
     number of Kohn-Sham states=           20
     kinetic-energy cutoff     =     150.0000  Ry
     charge density cutoff     =     600.0000  Ry
     scf convergence threshold =      1.0E-08
     mixing beta               =       0.3500
     number of iterations used =            8  plain     mixing
     Exchange-correlation= PBE
                           (   1   4   3   4   0   0   0)

     celldm(1)=  10.287107  celldm(2)=   0.000000  celldm(3)=   0.000000
     celldm(4)=   0.000000  celldm(5)=   0.000000  celldm(6)=   0.000000

     crystal axes: (cart. coord. in units of alat)
               a(1) = (   1.000000   0.000000   0.000000 )  
               a(2) = (   0.000000   1.000000   0.000000 )  
               a(3) = (   0.000000   0.000000   1.000000 )  

     reciprocal axes: (cart. coord. in units 2 pi/alat)
               b(1) = (  1.000000  0.000000  0.000000 )  
               b(2) = (  0.000000  1.000000  0.000000 )  
               b(3) = (  0.000000  0.000000  1.000000 )  


     PseudoPot. # 1 for Si read from file:
     ./Si.pz-vbc.UPF
     MD5 check sum: 6dfa03ddd5817404712e03e4d12deb78
     Pseudo is Norm-conserving, Zval =  4.0
     Generated by new atomic code, or converted to UPF format
     Using radial grid of  431 points,  2 beta functions with: 
                l(1) =   0
                l(2) =   1

     atomic species   valence    mass     pseudopotential
        Si             4.00    28.08500     Si( 1.00)

     24 Sym. Ops. (no inversion) found



   Cartesian axes

     site n.     atom                  positions (alat units)
         1           Si  tau(   1) = (   0.7500000   0.7500000   0.2500000  )
         2           Si  tau(   2) = (   0.0000000   0.5000000   0.5000000  )
         3           Si  tau(   3) = (   0.7500000   0.2500000   0.7500000  )
         4           Si  tau(   4) = (   0.0000000   0.0000000   0.0000000  )
         5           Si  tau(   5) = (   0.2500000   0.7500000   0.7500000  )
         6           Si  tau(   6) = (   0.5000000   0.5000000   0.0000000  )
         7           Si  tau(   7) = (   0.2500000   0.2500000   0.2500000  )
         8           Si  tau(   8) = (   0.5000000   0.0000000   0.5000000  )

     number of k points=     2  Gaussian smearing, width (Ry)=  0.0100
                       cart. coord. in units 2pi/alat
        k(    1) = (   0.0000000   0.0000000   0.0000000), wk =   1.0000000
        k(    2) = (   0.0000000  -0.5000000   0.0000000), wk =   1.0000000

     Dense  grid:   270017 G-vectors     FFT dimensions: (  81,  81,  81)

     Estimated max dynamical RAM per process >     237.65 MB

     Initial potential from superposition of free atoms

     starting charge      31.9960, renormalised to      32.0000
     Starting wfcs are random

     total cpu time spent up to now is        1.2 secs

     Self-consistent Calculation

     iteration #  1     ecut=   150.00 Ry     beta= 0.35
     Davidson diagonalization with overlap
     ethr =  1.00E-02,  avg # of iterations = 10.0

     total cpu time spent up to now is        6.4 secs

     total energy              =     -63.22962482 Ry
     estimated scf accuracy    <       0.32223563 Ry

     iteration #  2     ecut=   150.00 Ry     beta= 0.35
     Davidson diagonalization with overlap
     ethr =  1.01E-03,  avg # of iterations =  3.5

     total cpu time spent up to now is        8.4 secs

     total energy              =     -63.23872425 Ry
     estimated scf accuracy    <       0.12434828 Ry

     iteration #  3     ecut=   150.00 Ry     beta= 0.35
     Davidson diagonalization with overlap
     ethr =  3.89E-04,  avg # of iterations =  2.0

     total cpu time spent up to now is       10.4 secs

     total energy              =     -63.24966092 Ry
     estimated scf accuracy    <       0.00185899 Ry

     iteration #  4     ecut=   150.00 Ry     beta= 0.35
     Davidson diagonalization with overlap
     ethr =  5.81E-06,  avg # of iterations =  7.0

     total cpu time spent up to now is       13.6 secs

     total energy              =     -63.25159587 Ry
     estimated scf accuracy    <       0.00043404 Ry

     iteration #  5     ecut=   150.00 Ry     beta= 0.35
     Davidson diagonalization with overlap
     ethr =  1.36E-06,  avg # of iterations =  2.0

     total cpu time spent up to now is       15.1 secs

     total energy              =     -63.25163105 Ry
     estimated scf accuracy    <       0.00003201 Ry

     iteration #  6     ecut=   150.00 Ry     beta= 0.35
     Davidson diagonalization with overlap
     ethr =  1.00E-07,  avg # of iterations =  4.0

     total cpu time spent up to now is       17.0 secs

     total energy              =     -63.25164212 Ry
     estimated scf accuracy    <       0.00000109 Ry

     iteration #  7     ecut=   150.00 Ry     beta= 0.35
     Davidson diagonalization with overlap
     ethr =  3.42E-09,  avg # of iterations =  4.0

     total cpu time spent up to now is       19.6 secs

     total energy              =     -63.25164267 Ry
     estimated scf accuracy    <       0.00000145 Ry

     iteration #  8     ecut=   150.00 Ry     beta= 0.35
     Davidson diagonalization with overlap
     ethr =  3.42E-09,  avg # of iterations =  1.5

     total cpu time spent up to now is       21.2 secs

     total energy              =     -63.25164262 Ry
     estimated scf accuracy    <       0.00000044 Ry

     iteration #  9     ecut=   150.00 Ry     beta= 0.35
     Davidson diagonalization with overlap
     ethr =  1.37E-09,  avg # of iterations =  2.0

     total cpu time spent up to now is       23.2 secs

     End of self-consistent calculation

          k = 0.0000 0.0000 0.0000 ( 33833 PWs)   bands (ev):

    -5.7664  -1.6649  -1.6649  -1.6648  -1.6648  -1.6648  -1.6647   3.2601
     3.2601   3.2601   3.2601   3.2601   3.2601   6.0890   6.0890   6.0890
     6.9021   6.9021   6.9021   6.9022

          k = 0.0000-0.5000 0.0000 ( 33688 PWs)   bands (ev):

    -4.6957  -4.6955  -1.5059  -1.5057  -1.5057  -1.5057   2.2967   2.2967
     2.2967   2.2967   2.5925   2.5926   4.2172   4.2172   4.2174   4.2174
     7.2869   7.2870   9.2890   9.2891

     the Fermi energy is     6.4924 ev

!    total energy              =     -63.25164266 Ry
     estimated scf accuracy    <          5.4E-09 Ry
     smearing contrib. (-TS)   =      -0.00000259 Ry
     internal energy E=F+TS    =     -63.25164007 Ry

     The total energy is F=E-TS. E is the sum of the following terms:
     one-electron contribution =      18.39241127 Ry
     hartree contribution      =       4.85027080 Ry
     xc contribution           =     -19.46768603 Ry
     ewald contribution        =     -67.02663612 Ry

     convergence has been achieved in   9 iterations

     Writing all to output data dir ./tmp/pw.save/

     init_run     :      5.94s CPU      1.17s WALL (       1 calls)
     electrons    :    122.48s CPU     22.07s WALL (       1 calls)

     Called by init_run:
     wfcinit      :      5.02s CPU      0.89s WALL (       1 calls)
     potinit      :      0.12s CPU      0.13s WALL (       1 calls)
     hinit0       :      0.03s CPU      0.03s WALL (       1 calls)

     Called by electrons:
     c_bands      :    108.37s CPU     18.39s WALL (       9 calls)
     sum_band     :     11.51s CPU      2.29s WALL (       9 calls)
     v_of_rho     :      1.74s CPU      1.23s WALL (      10 calls)
     mix_rho      :      0.87s CPU      0.24s WALL (       9 calls)

     Called by c_bands:
     init_us_2    :      0.69s CPU      0.14s WALL (      38 calls)
     init_us_2:cp :      0.69s CPU      0.14s WALL (      38 calls)
     cegterg      :    107.44s CPU     18.22s WALL (      18 calls)

     Called by *egterg:
     cdiaghg      :      0.50s CPU      0.06s WALL (      90 calls)
     h_psi        :     87.12s CPU     15.33s WALL (      92 calls)
     g_psi        :      0.60s CPU      0.07s WALL (      72 calls)

     Called by h_psi:
     h_psi:calbec :     21.99s CPU      3.47s WALL (      92 calls)
     vloc_psi     :     63.57s CPU     11.63s WALL (      92 calls)
     add_vuspsi   :      1.25s CPU      0.18s WALL (      92 calls)

     General routines
     calbec       :     21.99s CPU      3.47s WALL (      92 calls)
     fft          :      0.99s CPU      0.49s WALL (      99 calls)
     ffts         :      0.26s CPU      0.06s WALL (       9 calls)
     fftw         :     67.95s CPU     12.57s WALL (    2670 calls)

     Parallel routines

     PWSCF        :   2m 8.47s CPU     23.29s WALL


   This run was terminated on:   7: 2: 5  20Jan2025            

=------------------------------------------------------------------------------=
   JOB DONE.
=------------------------------------------------------------------------------=
