
     Program PWSCF v.7.0 starts on 20Jan2025 at  7:24:14 

     This program is part of the open-source Quantum ESPRESSO suite
     for quantum simulation of materials; please cite
         "P. Giannozzi et al., J. Phys.:Condens. Matter 21 395502 (2009);
         "P. Giannozzi et al., J. Phys.:Condens. Matter 29 465901 (2017);
         "P. Giannozzi et al., J. Chem. Phys. 152 154105 (2020);
          URL http://www.quantum-espresso.org", 
     in publications or presentations arising from this work. More details at
     http://www.quantum-espresso.org/quote

     Parallel version (MPI), running on     1 processors

     MPI processes distributed on     1 nodes
     0 MiB available memory on the printing compute node when the environment starts

     Reading input from espresso.pwi
Warning: card &CELL ignored
Warning: card / ignored
Warning: card &FCP ignored
Warning: card / ignored
Warning: card &RISM ignored
Warning: card / ignored

     Current dimensions of program PWSCF are:
     Max number of different atomic species (ntypx) = 10
     Max number of k-points (npk) =  40000
     Max angular momentum in pseudopotentials (lmaxx) =  4

     IMPORTANT: XC functional enforced from input :
     Exchange-correlation= PBE
                           (   1   4   3   4   0   0   0)
     Any further DFT definition will be discarded
     Please, verify this is what you really want

     Found identity + (  0.0000  0.5000 -0.5000) symmetry
     This is a supercell, fractional translations are disabled
     Message from routine setup:
     using ibrav=0 with symmetry is DISCOURAGED, use correct ibrav instead

     Subspace diagonalization in iterative solution of the eigenvalue problem:
     a serial algorithm will be used


     G-vector sticks info
     --------------------
     sticks:   dense  smooth     PW     G-vecs:    dense   smooth      PW
     Sum        1685    1685    489                52035    52035    8121

     Using Slab Decomposition



     bravais-lattice index     =            0
     lattice parameter (alat)  =      10.2871  a.u.
     unit-cell volume          =    1088.6285 (a.u.)^3
     number of atoms/cell      =            8
     number of atomic types    =            1
     number of electrons       =        32.00
     number of Kohn-Sham states=           20
     kinetic-energy cutoff     =      50.0000  Ry
     charge density cutoff     =     200.0000  Ry
     scf convergence threshold =      1.0E-08
     mixing beta               =       0.3500
     number of iterations used =            8  plain     mixing
     Exchange-correlation= PBE
                           (   1   4   3   4   0   0   0)

     celldm(1)=  10.287107  celldm(2)=   0.000000  celldm(3)=   0.000000
     celldm(4)=   0.000000  celldm(5)=   0.000000  celldm(6)=   0.000000

     crystal axes: (cart. coord. in units of alat)
               a(1) = (   1.000000   0.000000   0.000000 )  
               a(2) = (   0.000000   1.000000   0.000000 )  
               a(3) = (   0.000000   0.000000   1.000000 )  

     reciprocal axes: (cart. coord. in units 2 pi/alat)
               b(1) = (  1.000000  0.000000  0.000000 )  
               b(2) = (  0.000000  1.000000  0.000000 )  
               b(3) = (  0.000000  0.000000  1.000000 )  


     PseudoPot. # 1 for Si read from file:
     ./Si.pz-vbc.UPF
     MD5 check sum: 6dfa03ddd5817404712e03e4d12deb78
     Pseudo is Norm-conserving, Zval =  4.0
     Generated by new atomic code, or converted to UPF format
     Using radial grid of  431 points,  2 beta functions with: 
                l(1) =   0
                l(2) =   1

     atomic species   valence    mass     pseudopotential
        Si             4.00    28.08500     Si( 1.00)

     24 Sym. Ops. (no inversion) found



   Cartesian axes

     site n.     atom                  positions (alat units)
         1           Si  tau(   1) = (   0.7500000   0.7500000   0.2500000  )
         2           Si  tau(   2) = (   0.0000000   0.5000000   0.5000000  )
         3           Si  tau(   3) = (   0.7500000   0.2500000   0.7500000  )
         4           Si  tau(   4) = (   0.0000000   0.0000000   0.0000000  )
         5           Si  tau(   5) = (   0.2500000   0.7500000   0.7500000  )
         6           Si  tau(   6) = (   0.5000000   0.5000000   0.0000000  )
         7           Si  tau(   7) = (   0.2500000   0.2500000   0.2500000  )
         8           Si  tau(   8) = (   0.5000000   0.0000000   0.5000000  )

     number of k points=    20  Gaussian smearing, width (Ry)=  0.0100
                       cart. coord. in units 2pi/alat
        k(    1) = (   0.0000000   0.0000000   0.0000000), wk =   0.0092593
        k(    2) = (   0.0000000   0.0000000   0.1666667), wk =   0.0555556
        k(    3) = (   0.0000000   0.0000000   0.3333333), wk =   0.0555556
        k(    4) = (   0.0000000   0.0000000  -0.5000000), wk =   0.0277778
        k(    5) = (   0.0000000   0.1666667   0.1666667), wk =   0.1111111
        k(    6) = (   0.0000000   0.1666667   0.3333333), wk =   0.2222222
        k(    7) = (   0.0000000   0.1666667  -0.5000000), wk =   0.1111111
        k(    8) = (   0.0000000   0.3333333   0.3333333), wk =   0.1111111
        k(    9) = (   0.0000000   0.3333333  -0.5000000), wk =   0.1111111
        k(   10) = (   0.0000000  -0.5000000  -0.5000000), wk =   0.0277778
        k(   11) = (   0.1666667   0.1666667   0.1666667), wk =   0.0740741
        k(   12) = (   0.1666667   0.1666667   0.3333333), wk =   0.2222222
        k(   13) = (   0.1666667   0.1666667  -0.5000000), wk =   0.1111111
        k(   14) = (   0.1666667   0.3333333   0.3333333), wk =   0.2222222
        k(   15) = (   0.1666667   0.3333333  -0.5000000), wk =   0.2222222
        k(   16) = (   0.1666667  -0.5000000  -0.5000000), wk =   0.0555556
        k(   17) = (   0.3333333   0.3333333   0.3333333), wk =   0.0740741
        k(   18) = (   0.3333333   0.3333333  -0.5000000), wk =   0.1111111
        k(   19) = (   0.3333333  -0.5000000  -0.5000000), wk =   0.0555556
        k(   20) = (  -0.5000000  -0.5000000  -0.5000000), wk =   0.0092593

     Dense  grid:    52035 G-vectors     FFT dimensions: (  48,  48,  48)

     Estimated max dynamical RAM per process >      82.18 MB

     Initial potential from superposition of free atoms

     starting charge      31.9960, renormalised to      32.0000
     Starting wfcs are random

     total cpu time spent up to now is        1.4 secs

     Self-consistent Calculation

     iteration #  1     ecut=    50.00 Ry     beta= 0.35
     Davidson diagonalization with overlap
     ethr =  1.00E-02,  avg # of iterations =  9.0

     Threshold (ethr) on eigenvalues was too large:
     Diagonalizing with lowered threshold

     Davidson diagonalization with overlap
     ethr =  7.67E-04,  avg # of iterations =  2.5

     total cpu time spent up to now is       13.2 secs

     total energy              =     -63.52315539 Ry
     estimated scf accuracy    <       0.25540768 Ry

     iteration #  2     ecut=    50.00 Ry     beta= 0.35
     Davidson diagonalization with overlap
     ethr =  7.98E-04,  avg # of iterations =  1.1

     total cpu time spent up to now is       16.2 secs

     total energy              =     -63.50791839 Ry
     estimated scf accuracy    <       0.08989880 Ry

     iteration #  3     ecut=    50.00 Ry     beta= 0.35
     Davidson diagonalization with overlap
     ethr =  2.81E-04,  avg # of iterations =  1.8

     total cpu time spent up to now is       18.8 secs

     total energy              =     -63.51346385 Ry
     estimated scf accuracy    <       0.00123201 Ry

     iteration #  4     ecut=    50.00 Ry     beta= 0.35
     Davidson diagonalization with overlap
     c_bands:  1 eigenvalues not converged
     c_bands:  1 eigenvalues not converged
     ethr =  3.85E-06,  avg # of iterations =  9.6

     total cpu time spent up to now is       24.2 secs

     total energy              =     -63.51416895 Ry
     estimated scf accuracy    <       0.00001343 Ry

     iteration #  5     ecut=    50.00 Ry     beta= 0.35
     Davidson diagonalization with overlap
     ethr =  4.20E-08,  avg # of iterations =  4.7

     total cpu time spent up to now is       28.6 secs

     total energy              =     -63.51418100 Ry
     estimated scf accuracy    <       0.00000156 Ry

     iteration #  6     ecut=    50.00 Ry     beta= 0.35
     Davidson diagonalization with overlap
     ethr =  4.88E-09,  avg # of iterations =  2.4

     total cpu time spent up to now is       32.2 secs

     total energy              =     -63.51418136 Ry
     estimated scf accuracy    <       0.00000011 Ry

     iteration #  7     ecut=    50.00 Ry     beta= 0.35
     Davidson diagonalization with overlap
     ethr =  3.41E-10,  avg # of iterations =  2.8

     total cpu time spent up to now is       35.6 secs

     End of self-consistent calculation

          k = 0.0000 0.0000 0.0000 (  6619 PWs)   bands (ev):

    -5.8772  -1.7846  -1.7846  -1.7845  -1.7845  -1.7845  -1.7845   3.1554
     3.1554   3.1554   3.1554   3.1554   3.1554   5.9551   5.9551   5.9551
     6.8064   6.8064   6.8064   6.8064

          k = 0.0000 0.0000 0.1667 (  6523 PWs)   bands (ev):

    -5.7572  -2.9796  -1.7479  -1.7479  -1.7479  -1.7479  -0.4474   2.8652
     2.8652   2.8652   2.8652   3.2639   3.2639   5.2608   5.5401   5.5401
     6.6602   7.2752   7.4006   7.4006

          k = 0.0000 0.0000 0.3333 (  6515 PWs)   bands (ev):

    -5.3989  -3.9961  -1.6697  -1.6697  -1.6697  -1.6697   0.9850   2.3993
     2.3993   2.3993   2.3993   3.5858   3.5858   3.9253   4.7939   4.7939
     6.8032   7.7444   8.0846   8.7945

          k = 0.0000 0.0000-0.5000 (  6480 PWs)   bands (ev):

    -4.8083  -4.8083  -1.6277  -1.6277  -1.6277  -1.6277   2.1989   2.1989
     2.1989   2.1989   2.4612   2.4612   4.1073   4.1073   4.1074   4.1074
     7.1901   7.1901   9.1981   9.1981

          k = 0.0000 0.1667 0.1667 (  6501 PWs)   bands (ev):

    -5.6382  -2.9038  -2.9038  -1.9280  -1.5243  -0.4845  -0.4845   2.2020
     2.9008   2.9008   3.0927   3.0927   3.3453   4.3842   5.1218   5.8361
     7.0243   7.2895   7.2896   7.8157

          k = 0.0000 0.1667 0.3333 (  6503 PWs)   bands (ev):

    -5.2833  -3.8990  -2.6944  -2.1355  -1.2293  -0.6280   0.8125   1.8090
     2.2772   2.8842   3.1815   3.2435   3.2552   3.5972   4.3690   5.2613
     7.4478   7.8184   8.3576   8.5579

          k = 0.0000 0.1667-0.5000 (  6510 PWs)   bands (ev):

    -4.6994  -4.6993  -2.4091  -2.4090  -0.8999  -0.8999   1.8490   1.8490
     2.0685   2.0685   2.9536   2.9536   3.6845   3.6846   4.3635   4.3635
     7.8295   7.8295   9.3612   9.3613

          k = 0.0000 0.3333 0.3333 (  6500 PWs)   bands (ev):

    -4.9395  -3.6172  -3.6172  -2.6589  -0.7478   0.3630   0.3630   1.6492
     2.2774   2.4722   2.4722   3.6092   3.7165   3.7165   3.8831   5.3954
     7.6413   8.8768   8.8769   9.0108

          k = 0.0000 0.3333-0.5000 (  6494 PWs)   bands (ev):

    -4.3775  -4.3775  -3.1827  -3.1827  -0.2011  -0.2011   1.3138   1.3138
     1.9044   1.9044   2.9353   2.9353   3.9253   3.9253   4.7085   4.7085
     8.5724   8.5724   9.2206   9.2209

          k = 0.0000-0.5000-0.5000 (  6496 PWs)   bands (ev):

    -3.8600  -3.8600  -3.8600  -3.8600   0.5306   0.5306   0.5306   0.5306
     2.2944   2.2944   2.2944   2.2944   4.6504   4.6504   4.6504   4.6504
     8.4846   8.4846   8.4846   8.4846

          k = 0.1667 0.1667 0.1667 (  6490 PWs)   bands (ev):

    -5.5204  -2.8485  -2.8485  -2.8485  -0.5495  -0.5495  -0.5495   2.4107
     2.4107   2.4107   3.4493   3.4493   3.4493   3.6108   5.5152   5.5152
     7.1486   7.1486   7.1486   8.3232

          k = 0.1667 0.1667 0.3333 (  6508 PWs)   bands (ev):

    -5.1696  -3.8096  -2.7227  -2.7227  -0.7142  -0.7142   0.5514   2.1001
     2.1001   2.5724   3.0382   3.3935   3.3936   3.7561   4.8745   5.0476
     7.4991   7.9434   7.9434   8.4326

          k = 0.1667 0.1667-0.5000 (  6486 PWs)   bands (ev):

    -4.5939  -4.5939  -2.6495  -2.6495  -0.8158  -0.8158   1.5694   1.5694
     2.0378   2.0378   3.2627   3.2627   4.0068   4.0068   4.2467   4.2467
     8.0038   8.0038   9.4072   9.4074

          k = 0.1667 0.3333 0.3333 (  6510 PWs)   bands (ev):

    -4.8323  -3.5576  -3.5576  -2.8790  -0.7633  -0.0023  -0.0023   1.6139
     2.1461   2.8030   2.8030   3.8769   3.8769   3.9684   4.3051   5.2799
     7.7679   8.2910   8.2910   8.4032

          k = 0.1667 0.3333-0.5000 (  6474 PWs)   bands (ev):

    -4.2850  -4.2850  -3.2034  -3.2034  -0.5112  -0.5112   0.7517   0.7517
     2.4462   2.4462   3.5738   3.5738   4.0272   4.0272   4.6712   4.6712
     8.6559   8.6560   8.6592   8.6592

          k = 0.1667-0.5000-0.5000 (  6512 PWs)   bands (ev):

    -3.7996  -3.7996  -3.7996  -3.7996   0.0250   0.0250   0.0250   0.0251
     2.9748   2.9748   2.9748   2.9748   4.6792   4.6792   4.6792   4.6792
     8.4704   8.4704   8.4704   8.4704

          k = 0.3333 0.3333 0.3333 (  6497 PWs)   bands (ev):

    -4.5182  -3.4216  -3.4216  -3.4216  -0.5638  -0.5638  -0.5637   0.6965
     3.2362   3.2362   3.2362   4.2120   4.2121   4.2121   4.9700   4.9700
     7.7430   8.0865   8.0865   8.0865

          k = 0.3333 0.3333-0.5000 (  6486 PWs)   bands (ev):

    -4.0245  -4.0245  -3.3421  -3.3420  -0.8098  -0.8098  -0.0571  -0.0571
     3.4091   3.4091   4.3402   4.3402   4.4079   4.4079   4.5733   4.5733
     8.1097   8.1097   8.5670   8.5671

          k = 0.3333-0.5000-0.5000 (  6500 PWs)   bands (ev):

    -3.6616  -3.6616  -3.6616  -3.6615  -0.6395  -0.6395  -0.6395  -0.6395
     4.1146   4.1146   4.1146   4.1146   4.7398   4.7399   4.7399   4.7399
     8.0525   8.0525   8.0525   8.0525

          k =-0.5000-0.5000-0.5000 (  6488 PWs)   bands (ev):

    -3.5809  -3.5809  -3.5809  -3.5809  -0.9137  -0.9137  -0.9137  -0.9136
     4.7718   4.7718   4.7718   4.7718   4.7718   4.7718   4.7718   4.7718
     7.5207   7.5207   7.5207   7.5208

     the Fermi energy is     6.2993 ev

!    total energy              =     -63.51418138 Ry
     estimated scf accuracy    <          3.9E-09 Ry
     smearing contrib. (-TS)   =      -0.00000027 Ry
     internal energy E=F+TS    =     -63.51418111 Ry

     The total energy is F=E-TS. E is the sum of the following terms:
     one-electron contribution =      18.29395957 Ry
     hartree contribution      =       4.54693034 Ry
     xc contribution           =     -19.32843490 Ry
     ewald contribution        =     -67.02663613 Ry

     convergence has been achieved in   7 iterations

     Writing all to output data dir ./tmp/pw.save/

     init_run     :      9.28s CPU      1.37s WALL (       1 calls)
     electrons    :    219.67s CPU     34.20s WALL (       1 calls)

     Called by init_run:
     wfcinit      :      8.98s CPU      1.27s WALL (       1 calls)
     potinit      :      0.18s CPU      0.05s WALL (       1 calls)
     hinit0       :      0.04s CPU      0.02s WALL (       1 calls)

     Called by electrons:
     c_bands      :    209.11s CPU     30.74s WALL (       8 calls)
     sum_band     :     10.34s CPU      3.22s WALL (       8 calls)
     v_of_rho     :      0.36s CPU      0.25s WALL (       8 calls)
     mix_rho      :      0.02s CPU      0.03s WALL (       8 calls)

     Called by c_bands:
     init_us_2    :      1.37s CPU      0.26s WALL (     340 calls)
     init_us_2:cp :      1.37s CPU      0.26s WALL (     340 calls)
     cegterg      :    206.75s CPU     30.40s WALL (     160 calls)

     Called by *egterg:
     cdiaghg      :      2.18s CPU      0.33s WALL (     814 calls)
     h_psi        :    186.23s CPU     27.51s WALL (     854 calls)
     g_psi        :      0.85s CPU      0.13s WALL (     674 calls)

     Called by h_psi:
     h_psi:calbec :     20.89s CPU      3.16s WALL (     854 calls)
     vloc_psi     :    162.19s CPU     23.86s WALL (     854 calls)
     add_vuspsi   :      2.48s CPU      0.39s WALL (     854 calls)

     General routines
     calbec       :     20.87s CPU      3.15s WALL (     854 calls)
     fft          :      0.18s CPU      0.14s WALL (      80 calls)
     ffts         :      0.01s CPU      0.01s WALL (       8 calls)
     fftw         :    160.93s CPU     25.10s WALL (   24800 calls)

     Parallel routines

     PWSCF        :   3m49.03s CPU     35.64s WALL


   This run was terminated on:   7:24:50  20Jan2025            

=------------------------------------------------------------------------------=
   JOB DONE.
=------------------------------------------------------------------------------=
